 Gaussian 16, Revision C.01,
 Gaussian 16:  ES64L-G16RevC.01  3-Jul-2019

 -------------------------------------------
 # AM1/STO-5G SCF=XQC FORCE nosym guess=read
 -------------------------------------------

 ---------
 MD Step 3
 ---------
 Symbolic Z-matrix:
 Charge =  0 Multiplicity = 1

                          Input orientation:
 ---------------------------------------------------------------------
 Center     Atomic      Atomic             Coordinates (Angstroms)
 Number     Number       Type             X           Y           Z
 ---------------------------------------------------------------------
      1          6           0       -1.037488   -1.171934    0.001729
      2          6           0        0.314912   -1.138130    0.002746
      3          6           0        1.008436    0.000276   -0.001556
      4          6           0        0.314748    1.138433   -0.002400
      5          6           0       -1.037611    1.171905   -0.000820
      6          6           0       -1.745088   -0.000009    0.000598
      7          1           0       -1.673196   -2.053663    0.003968
      8          1           0        0.775204   -2.106096    0.005207
      9          1           0        0.774912    2.106416   -0.002931
     10          1           0       -1.673671    2.053258   -0.000074
     11          7           0        2.345442    0.000178   -0.004920
     12          6           0        3.097952   -1.231232   -0.000507
     13          1           0        4.140938   -1.027442   -0.001831
     14          1           0        2.836296   -1.833119    0.861807
     15          1           0        2.835454   -1.838612   -0.859321
     16          6           0        3.098731    1.230832    0.004717
     17          1           0        4.141492    1.026616   -0.014784
     18          1           0        2.824061    1.847010   -0.844548
     19          1           0        2.849667    1.824804    0.876069
     20          6           0       -3.202133   -0.000295    0.000073
     21          7           0       -4.325332    0.000014   -0.000705
 ---------------------------------------------------------------------

 SCF Done:  E(RAM1) =  0.154602214577     A.U. after   11 cycles

 Alpha  occ. eigenvalues --   -1.55629  -1.42661  -1.35798  -1.20147  -1.18334
 Alpha  occ. eigenvalues --   -1.09102  -0.99308  -0.87169  -0.84047  -0.73186
 Alpha  occ. eigenvalues --   -0.68333  -0.64172  -0.61582  -0.57618  -0.55844
 Alpha  occ. eigenvalues --   -0.54309  -0.54021  -0.53523  -0.51141  -0.51027
 Alpha  occ. eigenvalues --   -0.49573  -0.49491  -0.48889  -0.47226  -0.43428
 Alpha  occ. eigenvalues --   -0.41000  -0.37601  -0.31662
 Alpha virt. eigenvalues --    0.00778   0.01526   0.07142   0.08086   0.08673
 Alpha virt. eigenvalues --    0.11590   0.11691   0.12881   0.13621   0.14302
 Alpha virt. eigenvalues --    0.14611   0.14640   0.15317   0.15679   0.16442

 Mulliken charges:
               1
     1  C   -0.048262
     2  C   -0.217603
     3  C    0.171145
     4  C   -0.217548
     5  C   -0.048218
     6  C   -0.092335
     7  H    0.138747
     8  H    0.130567
     9  H    0.130564
    10  H    0.138727
    11  N   -0.299070
    12  C   -0.055895
    13  H    0.088271
    14  H    0.070594
    15  H    0.071253
    16  C   -0.055885
    17  H    0.088329
    18  H    0.071205
    19  H    0.070551
    20  C   -0.079571
    21  N   -0.055566
 Sum of Mulliken charges =   0.00000

 Dipole moment (field-independent basis, Debye):
    X=              5.4507    Y=             -0.0008    Z=              0.0182  Tot=              5.4508
 N-N= 3.162883839508D+02 E-N=-4.941099368881D+02  KE=-9.724117317074D+01
 Calling FoFJK, ICntrl=      2127 FMM=F ISym2X=0 I1Cent= 0 IOpClX= 0 NMat=1 NMatS=1 NMatT=0.
 -------------------------------------------------------------------
 Center     Atomic                   Forces (Hartrees/Bohr)
 Number     Number              X              Y              Z
 -------------------------------------------------------------------
      1        6          -0.044919774   -0.027846381    0.000241805
      2        6          -0.029109014   -0.112954286    0.000095594
      3        6           0.056600824   -0.000130718    0.000120284
      4        6          -0.029108832    0.113042576   -0.000005097

 Normal termination of Gaussian 16 at Thu Feb  2 19:07:22 2023.
