 Gaussian 16, Revision C.01,
 Gaussian 16:  ES64L-G16RevC.01  3-Jul-2019

 -------------------------------------------
 # AM1/STO-5G SCF=XQC FORCE nosym guess=read
 -------------------------------------------

 ---------
 MD Step 4
 ---------
 Symbolic Z-matrix:
 Charge =  0 Multiplicity = 1

                          Input orientation:
 ---------------------------------------------------------------------
 Center     Atomic      Atomic             Coordinates (Angstroms)
 Number     Number       Type             X           Y           Z
 ---------------------------------------------------------------------
      1          6           0       -1.036137   -1.174108    0.001721
      2          6           0        0.314859   -1.141532    0.002769
      3          6           0        1.013182    0.000263   -0.001558
      4          6           0        0.314711    1.141829   -0.002374
      5          6           0       -1.036254    1.174096   -0.000794
      6          6           0       -1.742767   -0.000013    0.000543
      7          1           0       -1.672097   -2.062299    0.003837
      8          1           0        0.774492   -2.119452    0.005312
      9          1           0        0.774259    2.119775   -0.002802
     10          1           0       -1.672674    2.061859   -0.000088
     11          7           0        2.345293    0.000167   -0.004983
     12          6           0        3.093618   -1.231226   -0.000460
     13          1           0        4.145072   -1.024204   -0.001864
     14          1           0        2.821934   -1.830046    0.877406
     15          1           0        2.821053   -1.835644   -0.874674
     16          6           0        3.094381    1.230826    0.004699
     17          1           0        4.145645    1.023474   -0.014943
     18          1           0        2.809311    1.844220   -0.859979
     19          1           0        2.835603    1.821638    0.891652
     20          6           0       -3.205052   -0.000284    0.000002
     21          7           0       -4.320044    0.000009   -0.000635
 ---------------------------------------------------------------------

 SCF Done:  E(RAM1) =  0.149647472514     A.U. after   11 cycles

 Alpha  occ. eigenvalues --   -1.55379  -1.42696  -1.36255  -1.19960  -1.17961
 Alpha  occ. eigenvalues --   -1.08670  -0.99073  -0.86808  -0.83772  -0.73001
 Alpha  occ. eigenvalues --   -0.68183  -0.64093  -0.61656  -0.57451  -0.55773
 Alpha  occ. eigenvalues --   -0.54336  -0.53852  -0.53444  -0.51044  -0.50945
 Alpha  occ. eigenvalues --   -0.49727  -0.49520  -0.48782  -0.47067  -0.43326
 Alpha  occ. eigenvalues --   -0.40988  -0.37570  -0.31554
 Alpha virt. eigenvalues --    0.00846   0.01622   0.07218   0.08337   0.08806
 Alpha virt. eigenvalues --    0.11612   0.11781   0.12837   0.13493   0.14154
 Alpha virt. eigenvalues --    0.14482   0.14519   0.15188   0.15590   0.16052

 Mulliken charges:
               1
     1  C   -0.048035
     2  C   -0.220370
     3  C    0.170360
     4  C   -0.220307
     5  C   -0.047997
     6  C   -0.094630
     7  H    0.139033
     8  H    0.130980
     9  H    0.130980
    10  H    0.139021
    11  N   -0.296033
    12  C   -0.059751
    13  H    0.089369
    14  H    0.072668
    15  H    0.073334
    16  C   -0.059753
    17  H    0.089429
    18  H    0.073306
    19  H    0.072602
    20  C   -0.077380
    21  N   -0.056825
 Sum of Mulliken charges =   0.00000

 Dipole moment (field-independent basis, Debye):
    X=              5.5082    Y=             -0.0007    Z=              0.0179  Tot=              5.5083
 N-N= 3.161784754995D+02 E-N=-4.939691840717D+02  KE=-9.723072927446D+01
 Calling FoFJK, ICntrl=      2127 FMM=F ISym2X=0 I1Cent= 0 IOpClX= 0 NMat=1 NMatS=1 NMatT=0.
 -------------------------------------------------------------------
 Center     Atomic                   Forces (Hartrees/Bohr)
 Number     Number              X              Y              Z
 -------------------------------------------------------------------
      1        6          -0.048358153   -0.027948237    0.000229214
      2        6          -0.021790742   -0.111032250    0.000091005
      3        6           0.041286988   -0.000115806    0.000143472
      4        6          -0.021797413    0.111132935    0.000009917

 Normal termination of Gaussian 16 at Thu Feb  2 19:07:40 2023.
