 Gaussian 16, Revision C.01,
 Gaussian 16:  ES64L-G16RevC.01  3-Jul-2019

 -------------------
 #P OPT PBEPBE/3-21G
 -------------------

 -------------------
 Title Card Required
 -------------------
 Symbolic Z-matrix:
 Charge =  0 Multiplicity = 1

 SCF Done:  E(RPBE-PBE) =  -455.315332101     A.U. after   16 cycles
 SCF Done:  E(RPBE-PBE) =  -455.349898295     A.U. after   16 cycles
 SCF Done:  E(RPBE-PBE) =  -455.352171494     A.U. after   13 cycles
 SCF Done:  E(RPBE-PBE) =  -455.352870981     A.U. after   13 cycles
 SCF Done:  E(RPBE-PBE) =  -455.353021499     A.U. after   13 cycles
 SCF Done:  E(RPBE-PBE) =  -455.353062961     A.U. after   13 cycles
 SCF Done:  E(RPBE-PBE) =  -455.353250676     A.U. after   13 cycles
 SCF Done:  E(RPBE-PBE) =  -455.337676544     A.U. after   17 cycles
 SCF Done:  E(RPBE-PBE) =  -455.356836040     A.U. after   15 cycles
 SCF Done:  E(RPBE-PBE) =  -455.303449748     A.U. after   17 cycles
 SCF Done:  E(RPBE-PBE) =  -455.367674150     A.U. after   16 cycles
 SCF Done:  E(RPBE-PBE) =  -455.368017193     A.U. after   16 cycles
 SCF Done:  E(RPBE-PBE) =  -455.368197628     A.U. after   13 cycles
 SCF Done:  E(RPBE-PBE) =  -455.368303611     A.U. after   13 cycles
 SCF Done:  E(RPBE-PBE) =  -455.368367814     A.U. after   13 cycles
 SCF Done:  E(RPBE-PBE) =  -455.368400626     A.U. after   12 cycles
 SCF Done:  E(RPBE-PBE) =  -455.368427084     A.U. after   12 cycles
 SCF Done:  E(RPBE-PBE) =  -455.368438211     A.U. after   12 cycles
 SCF Done:  E(RPBE-PBE) =  -455.368441410     A.U. after    9 cycles
 SCF Done:  E(RPBE-PBE) =  -455.368441640     A.U. after    8 cycles
 Optimization completed.
    -- Stationary point found.

                         Standard orientation:
 ---------------------------------------------------------------------
 Center     Atomic      Atomic             Coordinates (Angstroms)
 Number     Number       Type             X           Y           Z
 ---------------------------------------------------------------------
      1          6           0       -1.205788   -1.215110    0.000002
      2          6           0        0.185978   -1.218080   -0.000110
      3          6           0        0.929475    0.000088   -0.000305
      4          6           0        0.185954    1.218142   -0.000486
      5          6           0       -1.205868    1.215104   -0.000369
      6          6           0       -1.933918    0.000003   -0.000072
      7          1           0       -1.750235   -2.162124    0.000191
      8          1           0        0.709098   -2.174724    0.000011
      9          1           0        0.708909    2.174880   -0.000894
     10          1           0       -1.750260    2.162147   -0.000589
     11          7           0        2.309243    0.000006   -0.000291
     12          6           0        3.048040   -1.273780   -0.000007
     13          1           0        4.126057   -1.054842   -0.000965
     14          1           0        2.814552   -1.877179    0.898745
     15          1           0        2.813293   -1.878119   -0.897778
     16          6           0        3.048261    1.273661    0.000695
     17          1           0        4.126259    1.054626    0.001868
     18          1           0        2.815303    1.877834   -0.897680
     19          1           0        2.813239    1.877410    0.898799
     20          6           0       -3.356179   -0.000004    0.000181
     21          7           0       -4.538093   -0.000013    0.000451
 ---------------------------------------------------------------------

 The electronic state is 1-A.
 Alpha  occ. eigenvalues --  -13.97571 -13.90116  -9.89856  -9.88802  -9.88753
 Alpha  occ. eigenvalues --   -9.86835  -9.85692  -9.85650  -9.85619  -9.84932
 Alpha  occ. eigenvalues --   -9.84908  -0.88684  -0.81814  -0.78324  -0.70292
 Alpha  occ. eigenvalues --   -0.69472  -0.67068  -0.63097  -0.55993  -0.55085
 Alpha  occ. eigenvalues --   -0.50500  -0.47659  -0.45664  -0.42936  -0.41187
 Alpha  occ. eigenvalues --   -0.39898  -0.39025  -0.37862  -0.37535  -0.35563
 Alpha  occ. eigenvalues --   -0.35389  -0.34849  -0.31285  -0.30324  -0.27287
 Alpha  occ. eigenvalues --   -0.27230  -0.24859  -0.23361  -0.17352
 Alpha virt. eigenvalues --   -0.04615  -0.03383   0.01890   0.05714   0.06392
 Alpha virt. eigenvalues --    0.06915   0.09574   0.10132   0.12386   0.12807
 Alpha virt. eigenvalues --    0.14015   0.14057   0.14059   0.15048   0.16031

 Mulliken charges:
               1
     1  C   -0.166109
     2  C   -0.207909
     3  C    0.362692
     4  C   -0.207896
     5  C   -0.166098
     6  C   -0.028940
     7  H    0.209584
     8  H    0.198586
     9  H    0.198578
    10  H    0.209584
    11  N   -0.677103
    12  C   -0.431306
    13  H    0.221723
    14  H    0.226055
    15  H    0.226104
    16  C   -0.431305
    17  H    0.221726
    18  H    0.226063
    19  H    0.226083
    20  C    0.290839
    21  N   -0.500951
 Sum of Mulliken charges =  -0.00000

 Dipole moment (field-independent basis, Debye):
    X=              7.7766    Y=             -0.0000    Z=              0.0004  Tot=              7.7766
 Quadrupole moment (field-independent basis, Debye-Ang):
   XX=            -77.4208   YY=            -56.1246   ZZ=            -68.9739
   XY=             -0.0001   XZ=              0.0059   YZ=             -0.0004

 Normal termination of Gaussian 16 at Thu Jan 12 15:48:12 2023.
