 Gaussian 16, Revision C.01,
 Gaussian 16:  ES64L-G16RevC.01  3-Jul-2019

 ------------------
 # OPT B3LYP/6-31G*
 ------------------

 -------------------
 Title Card Required
 -------------------
 Symbolic Z-matrix:
 Charge =  0 Multiplicity = 1

 SCF Done:  E(RB3LYP) =  -2336.20679720     A.U. after   27 cycles
 SCF Done:  E(RB3LYP) =  -2336.23696427     A.U. after   18 cycles
 SCF Done:  E(RB3LYP) =  -2336.25239029     A.U. after   18 cycles
 SCF Done:  E(RB3LYP) =  -2336.25726642     A.U. after   15 cycles
 SCF Done:  E(RB3LYP) =  -2336.26951120     A.U. after   17 cycles
 SCF Done:  E(RB3LYP) =  -2336.27179528     A.U. after   15 cycles
 SCF Done:  E(RB3LYP) =  -2336.27763246     A.U. after   16 cycles
 SCF Done:  E(RB3LYP) =  -2336.27136639     A.U. after   16 cycles
 SCF Done:  E(RB3LYP) =  -2336.27498729     A.U. after   15 cycles
 SCF Done:  E(RB3LYP) =  -2336.28536487     A.U. after   13 cycles
 SCF Done:  E(RB3LYP) =  -2336.33684442     A.U. after    9 cycles
 SCF Done:  E(RB3LYP) =  -2336.33684977     A.U. after   10 cycles
 SCF Done:  E(RB3LYP) =  -2336.33685092     A.U. after   10 cycles
 SCF Done:  E(RB3LYP) =  -2336.33685173     A.U. after    9 cycles
 SCF Done:  E(RB3LYP) =  -2336.33685186     A.U. after    8 cycles
 SCF Done:  E(RB3LYP) =  -2336.33685232     A.U. after    8 cycles
 SCF Done:  E(RB3LYP) =  -2336.33685240     A.U. after    7 cycles
 SCF Done:  E(RB3LYP) =  -2336.33685247     A.U. after    7 cycles
 SCF Done:  E(RB3LYP) =  -2336.33685252     A.U. after    7 cycles
 SCF Done:  E(RB3LYP) =  -2336.33685254     A.U. after    6 cycles
 Optimization completed.
    -- Stationary point found.

                         Standard orientation:
 ---------------------------------------------------------------------
 Center     Atomic      Atomic             Coordinates (Angstroms)
 Number     Number       Type             X           Y           Z
 ---------------------------------------------------------------------
      1          6           0        4.825424   -0.709046    0.653351
      2          6           0        3.950008    0.341304    0.516156
      3          6           0        2.679812    0.192112   -0.098843
      4          6           0        2.351177   -1.122182   -0.521427
      5          6           0        3.217377   -2.196502   -0.396785
      6          6           0        4.489082   -2.017876    0.187219
      7          6           0        0.182374   -0.437181   -1.194187
      8          6           0        0.471178    0.921413   -0.828535
      9          6           0       -0.578401    1.863597   -1.085310
     10          1           0       -0.396304    2.910218   -0.875389
     11          6           0       -1.791044    1.478726   -1.565918
     12          6           0       -2.084914    0.094218   -1.845913
     13          6           0       -1.028845   -0.844155   -1.686723
     14          1           0        5.776372   -0.533033    1.139335
     15          1           0        4.233844    1.312185    0.903644
     16          1           0        2.870486   -3.161637   -0.740020
     17          1           0       -2.560040    2.224852   -1.708531
     18          1           0       -1.172778   -1.897050   -1.880210
     19          7           0       -3.298020   -0.281465   -2.275446
     20          7           0        5.363397   -3.061331    0.317715
     21         15           0       -4.080874   -0.693110    1.385820
     22          6           0        1.713995    1.236628   -0.263211
     23          6           0        1.992070    2.611779    0.183522
     24          6           0        1.269451    3.354348    1.090577
     25         16           0        3.330973    3.556946   -0.448434
     26          6           0        1.786488    4.666675    1.289202
     27          1           0        0.405313    2.957118    1.612273
     28          6           0        2.889119    4.922543    0.520867
     29          1           0        1.352313    5.386879    1.973500
     30          1           0        3.467921    5.834666    0.459807
     31          8           0        1.136956   -1.402955   -1.061212
     32          6           0       -3.605027   -1.705637   -2.443707
     33          1           0       -4.642455   -1.805892   -2.756696
     34          1           0       -2.963118   -2.146540   -3.215339
     35          1           0       -3.475412   -2.222139   -1.490149
     36          6           0       -4.405266    0.681898   -2.323443
     37          1           0       -5.307579    0.157007   -2.630637
     38          1           0       -4.571021    1.102101   -1.330003
     39          1           0       -4.196565    1.472085   -3.053826
     40          6           0        6.649830   -2.871639    0.977608
     41          1           0        6.531751   -2.574915    2.028302
     42          1           0        7.203929   -3.810236    0.950884
     43          1           0        7.252255   -2.110241    0.467428
     44          6           0        4.970073   -4.398296   -0.110070
     45          1           0        4.720648   -4.415547   -1.178298
     46          1           0        5.800309   -5.085617    0.053974
     47          1           0        4.102375   -4.766322    0.453571
     48          9           0       -2.865559   -1.491772    0.592122
     49          9           0       -3.075941   -0.411799    2.628706
     50          9           0       -5.279394    0.117666    2.114906
     51          9           0       -5.050197   -0.958655    0.074293
     52          9           0       -3.573248    0.714844    0.668878
     53          9           0       -4.570300   -2.092017    2.040123
 ---------------------------------------------------------------------

 The electronic state is 1-A.
 Alpha  occ. eigenvalues --  -88.93662 -77.25961 -24.59958 -24.59904 -24.59771
 Alpha  occ. eigenvalues --  -24.59316 -24.59244 -24.59240 -19.24486 -14.40240
 Alpha  occ. eigenvalues --  -14.39131 -10.29638 -10.29019 -10.27639 -10.26736
 Alpha  occ. eigenvalues --  -10.26545 -10.25395 -10.25206 -10.25123 -10.24231
 Alpha  occ. eigenvalues --  -10.23567 -10.23505 -10.23038 -10.22181 -10.22124
 Alpha  occ. eigenvalues --  -10.21958 -10.21822 -10.21733 -10.21402 -10.21376
 Alpha  occ. eigenvalues --  -10.21154 -10.20369  -7.99734  -6.67952  -5.96146
 Alpha  occ. eigenvalues --   -5.95770  -5.95436  -4.84499  -4.84494  -4.84493
 Alpha  occ. eigenvalues --   -1.16836  -1.13849  -1.09336  -1.09321  -1.09278
 Alpha  occ. eigenvalues --   -1.06198  -1.06170  -0.99252  -0.97633  -0.91530
 Alpha  occ. eigenvalues --   -0.89087  -0.88395  -0.83389  -0.80587  -0.78302
 Alpha  occ. eigenvalues --   -0.77392  -0.76009  -0.75936  -0.75657  -0.73137
 Alpha  occ. eigenvalues --   -0.72205  -0.69902  -0.66618  -0.65926  -0.64585
 Alpha  occ. eigenvalues --   -0.61937  -0.59071  -0.58030  -0.57674  -0.57164
 Alpha  occ. eigenvalues --   -0.56445  -0.54549  -0.53451  -0.52666  -0.52053
 Alpha  occ. eigenvalues --   -0.51506  -0.50338  -0.50125  -0.49030  -0.47846
 Alpha  occ. eigenvalues --   -0.47453  -0.46945  -0.46222  -0.46062  -0.45974
 Alpha  occ. eigenvalues --   -0.45886  -0.44966  -0.44511  -0.44438  -0.43952
 Alpha  occ. eigenvalues --   -0.43583  -0.42823  -0.42371  -0.41991  -0.41574
 Alpha  occ. eigenvalues --   -0.41198  -0.40642  -0.40337  -0.40173  -0.39840
 Alpha  occ. eigenvalues --   -0.38767  -0.38712  -0.38006  -0.37777  -0.37683
 Alpha  occ. eigenvalues --   -0.37070  -0.36979  -0.35735  -0.35704  -0.35482
 Alpha  occ. eigenvalues --   -0.34940  -0.32094  -0.31217  -0.31185  -0.31070
 Alpha  occ. eigenvalues --   -0.30847  -0.30758  -0.30522  -0.29200  -0.27786
 Alpha  occ. eigenvalues --   -0.27620  -0.27439  -0.27375  -0.27234  -0.25379
 Alpha  occ. eigenvalues --   -0.24316  -0.21450
 Alpha virt. eigenvalues --   -0.11461  -0.04414  -0.03456  -0.02075  -0.00793
 Alpha virt. eigenvalues --    0.00499   0.03237   0.04465   0.05633   0.07329
 Alpha virt. eigenvalues --    0.07902   0.08589   0.09201   0.09487   0.09962

 Mulliken charges:
               1
     1  C   -0.185441
     2  C   -0.201233
     3  C    0.087402
     4  C    0.326782
     5  C   -0.277909
     6  C    0.399651
     7  C    0.335396
     8  C    0.098765
     9  C   -0.188284
    10  H    0.165638
    11  C   -0.142497
    12  C    0.445573
    13  C   -0.252885
    14  H    0.145055
    15  H    0.170970
    16  H    0.159010
    17  H    0.162248
    18  H    0.167592
    19  N   -0.461935
    20  N   -0.480562
    21  P    1.441334
    22  C    0.087009
    23  C   -0.275446
    24  C   -0.099608
    25  S    0.278412
    26  C   -0.100531
    27  H    0.188953
    28  C   -0.333152
    29  H    0.162376
    30  H    0.186102
    31  O   -0.540775
    32  C   -0.331455
    33  H    0.174110
    34  H    0.150352
    35  H    0.235988
    36  C   -0.335251
    37  H    0.175465
    38  H    0.236600
    39  H    0.150767
    40  C   -0.322149
    41  H    0.175729
    42  H    0.171379
    43  H    0.174438
    44  C   -0.320782
    45  H    0.175392
    46  H    0.170488
    47  H    0.179895
    48  F   -0.407330
    49  F   -0.369402
    50  F   -0.365648
    51  F   -0.412025
    52  F   -0.409320
    53  F   -0.365253
 Sum of Mulliken charges =  -0.00000

 Dipole moment (field-independent basis, Debye):
    X=             17.5414    Y=              1.2920    Z=             -7.5013  Tot=             19.1217
 Quadrupole moment (field-independent basis, Debye-Ang):
   XX=           -188.8602   YY=           -157.0009   ZZ=           -198.2295
   XY=            -27.9287   XZ=             44.2506   YZ=              9.8862

 Normal termination of Gaussian 16 at Thu Jan  5 05:07:16 2023.
