 Gaussian 16, Revision C.01,
 Gaussian 16:  ES64L-G16RevC.01  3-Jul-2019

 ----------------------------------------------------------------------
 # AM1/STO-5G SCF=XQC TD=(singlets,nstates=4,root=1) nosym IOp(9/40=3)
 guess=read
 ----------------------------------------------------------------------

 ---------
 MD Step 3
 ---------
 Symbolic Z-matrix:
 Charge =  0 Multiplicity = 1

                          Input orientation:
 ---------------------------------------------------------------------
 Center     Atomic      Atomic             Coordinates (Angstroms)
 Number     Number       Type             X           Y           Z
 ---------------------------------------------------------------------
      1          6           0       -1.037488   -1.171934    0.001729
      2          6           0        0.314912   -1.138130    0.002746
      3          6           0        1.008436    0.000276   -0.001556
      4          6           0        0.314748    1.138433   -0.002400
      5          6           0       -1.037611    1.171905   -0.000820
      6          6           0       -1.745088   -0.000009    0.000598
      7          1           0       -1.673196   -2.053663    0.003968
      8          1           0        0.775204   -2.106096    0.005207
      9          1           0        0.774912    2.106416   -0.002931
     10          1           0       -1.673671    2.053258   -0.000074
     11          7           0        2.345442    0.000178   -0.004920
     12          6           0        3.097952   -1.231232   -0.000507
     13          1           0        4.140938   -1.027442   -0.001831
     14          1           0        2.836296   -1.833119    0.861807
     15          1           0        2.835454   -1.838612   -0.859321
     16          6           0        3.098731    1.230832    0.004717
     17          1           0        4.141492    1.026616   -0.014784
     18          1           0        2.824061    1.847010   -0.844548
     19          1           0        2.849667    1.824804    0.876069
     20          6           0       -3.202133   -0.000295    0.000073
     21          7           0       -4.325332    0.000014   -0.000705
 ---------------------------------------------------------------------

 SCF Done:  E(RAM1) =  0.154602214577     A.U. after    2 cycles

 Excitation energies and oscillator strengths:

 Excited state symmetry could not be determined.
 Excited State   1:      Singlet-?Sym    3.6515 eV  339.54 nm  f=0.0155  <S**2>=0.000
       4 -> 39        -0.00218
       4 -> 42        -0.00189
       4 -> 46        -0.00325
       5 -> 36        -0.00102
       5 -> 45         0.00122
       5 -> 48        -0.00181
       6 -> 46        -0.00104
       7 -> 48        -0.00175
       8 -> 39         0.00449
       8 -> 42         0.00189
       8 -> 46         0.00213
       8 -> 51        -0.00141
       9 -> 36         0.00137
      10 -> 36        -0.00190
      10 -> 40        -0.00102
      10 -> 45        -0.00112
      10 -> 48        -0.00130
      10 -> 52        -0.00147
      11 -> 36        -0.00289
      11 -> 44        -0.00160
      11 -> 45         0.00205
      11 -> 48         0.00142
      12 -> 31        -0.00145
      12 -> 34         0.00237
      12 -> 37        -0.00229
      12 -> 39        -0.00180
      12 -> 46        -0.00229
      12 -> 49         0.00105
      13 -> 30        -0.01269
      13 -> 38        -0.00139
      14 -> 36         0.00552
      14 -> 40         0.00229
      14 -> 44         0.00131
      14 -> 45        -0.00289
      14 -> 47        -0.00231
      14 -> 48         0.00121
      14 -> 50         0.00173
      14 -> 52        -0.00121
      15 -> 31        -0.00583
      15 -> 34        -0.00346
      15 -> 37        -0.00190
      15 -> 39         0.00422
      15 -> 46         0.00519
      15 -> 49        -0.00165
      15 -> 53        -0.00197
      16 -> 30         0.01957
      16 -> 38         0.00187
      17 -> 30         0.00137
      17 -> 32         0.00110
      17 -> 36         0.00355
      17 -> 44         0.00158
      17 -> 45        -0.00104
      17 -> 52        -0.00225
      18 -> 31         0.00218
      18 -> 39         0.00560
      18 -> 43        -0.00174
      18 -> 46         0.00824
      18 -> 49        -0.00167
      18 -> 53        -0.00228
      19 -> 36         0.00205
      19 -> 45        -0.00288
      19 -> 47         0.00388
      19 -> 48        -0.00298
      19 -> 52         0.00131
      20 -> 29        -0.00396
      20 -> 33        -0.00327
      20 -> 35         0.00474
      20 -> 41        -0.00301
      21 -> 30         0.00181
      21 -> 34        -0.00120
      21 -> 37        -0.00189
      21 -> 39         0.00281
      21 -> 42         0.00221
      21 -> 49        -0.00192
      21 -> 51        -0.00213
      22 -> 30         0.06031
      22 -> 38        -0.00212
      23 -> 34         0.00123
      23 -> 37        -0.00167
      23 -> 43        -0.00150
      23 -> 46        -0.00418
      23 -> 49         0.00141
      23 -> 51        -0.00127
      23 -> 53         0.00188
      24 -> 32        -0.00215
      24 -> 36        -0.00618
      24 -> 40        -0.00131
      24 -> 47        -0.00172
      24 -> 48         0.00231
      24 -> 52         0.00153
      25 -> 31         0.00354
      25 -> 34         0.00196
      25 -> 37        -0.00329
      25 -> 39         0.00943
      25 -> 42         0.00839
      25 -> 43         0.00245
      25 -> 46        -0.00164
      25 -> 49        -0.00511
      25 -> 51        -0.00702
      25 -> 53        -0.00346
      26 -> 30        -0.13614
      26 -> 31        -0.00106
      26 -> 38         0.00172
      27 -> 29         0.33287
      27 -> 33        -0.04673
      27 -> 34        -0.00185
      27 -> 35        -0.04012
      27 -> 41         0.01020
      28 -> 30         0.60765
      28 -> 31        -0.00231
      28 -> 38         0.00553
       4 <- 39        -0.00174
       4 <- 46        -0.00213
       4 <- 49        -0.00114
       7 <- 36         0.00116
       7 <- 45        -0.00172
       8 <- 39         0.00322
       8 <- 42         0.00125
       8 <- 51        -0.00153
       9 <- 50        -0.00106
      10 <- 45        -0.00165
      10 <- 52        -0.00108
      11 <- 36        -0.00188
      11 <- 44        -0.00117
      11 <- 45         0.00211
      12 <- 34         0.00199
      12 <- 37        -0.00101
      12 <- 46        -0.00155
      12 <- 49         0.00162
      14 <- 36         0.00255
      14 <- 40         0.00117
      14 <- 47        -0.00107
      15 <- 31        -0.00263
      15 <- 34        -0.00233
      15 <- 39         0.00172
      15 <- 46         0.00290
      15 <- 49        -0.00192
      16 <- 30         0.00837
      17 <- 36         0.00145
      17 <- 48        -0.00172
      17 <- 52        -0.00130
      18 <- 39         0.00257
      18 <- 46         0.00394
      18 <- 53        -0.00160
      19 <- 36         0.00128
      19 <- 45        -0.00164
      19 <- 47         0.00202
      19 <- 48        -0.00129
      20 <- 41        -0.00149
      21 <- 39         0.00115
      21 <- 42         0.00127
      21 <- 49        -0.00145
      22 <- 38        -0.00148
      23 <- 46        -0.00227
      24 <- 32        -0.00150
      24 <- 36        -0.00250
      24 <- 45        -0.00124
      24 <- 47        -0.00106
      24 <- 48         0.00295
      25 <- 31         0.00128
      25 <- 34         0.00136
      25 <- 37        -0.00143
      25 <- 39         0.00479
      25 <- 42         0.00324
      25 <- 43         0.00142
      25 <- 46        -0.00182
      25 <- 49        -0.00174
      25 <- 51        -0.00368
      25 <- 53        -0.00184
      26 <- 30        -0.01879
      26 <- 38         0.00159
      27 <- 29         0.07568
      27 <- 33        -0.02431
      27 <- 35        -0.00214
      27 <- 41         0.00581
      28 <- 30         0.02448
 This state for optimization and/or second-order correction.
 Total Energy, E(TD-HF/TD-DFT) =  0.288792562446
 Copying the excited state density for this state as the 1-particle RhoCI density.

 Excited state symmetry could not be determined.
 Excited State   2:      Singlet-?Sym    3.7341 eV  332.03 nm  f=0.2206  <S**2>=0.000
       1 -> 39         0.00117
       2 -> 31         0.00160
       2 -> 34        -0.00114
       2 -> 46         0.00140
       2 -> 51        -0.00100
       3 -> 31         0.00119
       4 -> 36         0.00107
       4 -> 45        -0.00124
       4 -> 47        -0.00185
       4 -> 48        -0.00174
       5 -> 31         0.00228
       5 -> 34         0.00176
       5 -> 43         0.00139
       5 -> 49        -0.00131
       6 -> 44         0.00350
       6 -> 45         0.00112
       6 -> 52        -0.00180
       7 -> 31         0.00519
       7 -> 34         0.00149
       7 -> 39         0.00155
       7 -> 43        -0.00243
       7 -> 49        -0.00208
       7 -> 51        -0.00138
       7 -> 53        -0.00274
       8 -> 36        -0.00293
       8 -> 40         0.00101
       8 -> 44        -0.00284
       8 -> 45         0.00212
       8 -> 48         0.00135
       8 -> 50        -0.00183
       9 -> 31         0.01172
       9 -> 39         0.00218
       9 -> 43        -0.00302
       9 -> 46         0.00237
       9 -> 49        -0.00113
       9 -> 51         0.00113
       9 -> 53        -0.00103
      10 -> 34         0.00211
      10 -> 37         0.00264
      10 -> 42        -0.00155
      10 -> 49        -0.00203
      10 -> 51        -0.00206
      10 -> 53         0.00166
      10 -> 54         0.00194
      11 -> 31         0.00139
      11 -> 34        -0.00194
      11 -> 37         0.00797
      11 -> 42        -0.00227
      11 -> 43        -0.00411
      11 -> 46        -0.00205
      11 -> 49         0.00367
      11 -> 51        -0.00343
      11 -> 53         0.00967
      12 -> 32        -0.00142
      12 -> 36         0.00578
      12 -> 40        -0.00445
      12 -> 44         0.00455
      12 -> 45        -0.00555
      12 -> 47         0.00460
      12 -> 48        -0.00104
      12 -> 50         0.00162
      12 -> 52         0.00806
      13 -> 29         0.00190
      13 -> 31         0.00375
      13 -> 33         0.00222
      13 -> 35        -0.00326
      13 -> 41         0.00582
      14 -> 31        -0.00565
      14 -> 34        -0.00182
      14 -> 37         0.00636
      14 -> 39        -0.00391
      14 -> 42         0.00183
      14 -> 43        -0.00318
      14 -> 46         0.00447
      14 -> 51        -0.00140
      15 -> 32         0.00167
      15 -> 40        -0.00224
      15 -> 45         0.00439
      15 -> 47         0.00131
      15 -> 48        -0.00751
      15 -> 52         0.01154
      16 -> 29         0.01046
      16 -> 31        -0.00179
      16 -> 33         0.01645
      16 -> 34        -0.00147
      16 -> 35        -0.03851
      16 -> 41        -0.01176
      17 -> 31         0.01039
      17 -> 34        -0.00935
      17 -> 35        -0.00155
      17 -> 37        -0.00693
      17 -> 39         0.00117
      17 -> 43         0.00387
      17 -> 46         0.00239
      17 -> 49        -0.00835
      17 -> 51         0.00179
      17 -> 53        -0.00420
      18 -> 32        -0.00215
      18 -> 36        -0.00380
      18 -> 40        -0.00608
      18 -> 45        -0.00170
      18 -> 48         0.00845
      18 -> 50         0.00564
      19 -> 31         0.00733
      19 -> 34        -0.00175
      19 -> 37         0.00395
      19 -> 38        -0.00413
      19 -> 39         0.00602
      19 -> 42         0.00630
      19 -> 43        -0.00128
      19 -> 46        -0.00449
      19 -> 49        -0.00647
      19 -> 51         0.00614
      19 -> 53        -0.01008
      20 -> 30         0.00422
      20 -> 38         0.02987
      20 -> 40        -0.00164
      20 -> 53        -0.00150
      21 -> 32         0.00335
      21 -> 33        -0.00152
      21 -> 36        -0.00119
      21 -> 40        -0.00377
      21 -> 44        -0.00452
      21 -> 45         0.00600
      21 -> 47        -0.00360
      21 -> 48        -0.00261
      21 -> 50        -0.00312
      21 -> 52         0.00166
      22 -> 29         0.02881
      22 -> 33        -0.05059
      22 -> 35         0.01158
      22 -> 41         0.02039
      23 -> 32        -0.00111
      23 -> 36         0.00526
      23 -> 40        -0.00819
      23 -> 44        -0.00781
      23 -> 45         0.00369
      23 -> 47        -0.00317
      23 -> 48         0.00254
      23 -> 50        -0.00347
      23 -> 52        -0.00536
      24 -> 31        -0.01428
      24 -> 34         0.01253
      24 -> 37         0.00376
      24 -> 39        -0.00401
      24 -> 42        -0.00189
      24 -> 43        -0.00288
      24 -> 49         0.01191
      24 -> 51        -0.00361
      24 -> 53         0.00585
      24 -> 54         0.00248
      25 -> 32        -0.00441
      25 -> 36        -0.00962
      25 -> 40         0.00139
      25 -> 44         0.00351
      25 -> 47        -0.00814
      25 -> 48         0.00209
      25 -> 50        -0.00419
      25 -> 52         0.00709
      26 -> 29        -0.08489
      26 -> 31         0.01206
      26 -> 33        -0.06291
      26 -> 34         0.00350
      26 -> 35         0.05821
      26 -> 41        -0.02380
      27 -> 30        -0.23024
      27 -> 38        -0.00181
      28 -> 29         0.63259
      28 -> 31         0.02711
      28 -> 33        -0.14997
      28 -> 34         0.00278
      28 -> 35         0.03871
      28 -> 41        -0.00549
      28 -> 42        -0.00153
      28 -> 53        -0.00132
       1 <- 39         0.00296
       1 <- 51        -0.00147
       2 <- 31         0.00181
       2 <- 34        -0.00147
       2 <- 46         0.00204
       3 <- 31         0.00126
       4 <- 36         0.00174
       4 <- 44         0.00102
       4 <- 45        -0.00253
       4 <- 47        -0.00126
       5 <- 31         0.00177
       5 <- 34         0.00200
       5 <- 43         0.00149
       5 <- 46        -0.00332
       6 <- 44         0.00142
       6 <- 52        -0.00120
       7 <- 31         0.00493
       7 <- 34         0.00109
       7 <- 49        -0.00157
       7 <- 53        -0.00302
       8 <- 36        -0.00327
       8 <- 44        -0.00147
       8 <- 45         0.00160
       8 <- 48         0.00191
       8 <- 50        -0.00242
       8 <- 52         0.00167
       9 <- 31         0.00760
       9 <- 51         0.00212
       9 <- 53        -0.00120
      10 <- 34         0.00202
      10 <- 37         0.00122
      10 <- 39         0.00114
      10 <- 51        -0.00250
      10 <- 54         0.00135
      11 <- 31        -0.00126
      11 <- 34        -0.00189
      11 <- 37         0.00438
      11 <- 42        -0.00121
      11 <- 43        -0.00186
      11 <- 46         0.00115
      11 <- 49         0.00230
      11 <- 51        -0.00246
      11 <- 53         0.00626
      12 <- 32        -0.00113
      12 <- 36         0.00319
      12 <- 40        -0.00262
      12 <- 44         0.00204
      12 <- 45        -0.00409
      12 <- 47         0.00254
      12 <- 48        -0.00102
      12 <- 52         0.00388
      13 <- 29        -0.00360
      13 <- 33        -0.00102
      13 <- 35         0.00189
      13 <- 41         0.00110
      14 <- 31        -0.00266
      14 <- 34        -0.00126
      14 <- 37         0.00282
      14 <- 39        -0.00113
      14 <- 42         0.00146
      14 <- 43        -0.00159
      14 <- 46         0.00474
      15 <- 32         0.00119
      15 <- 36        -0.00177
      15 <- 44        -0.00114
      15 <- 45         0.00352
      15 <- 48        -0.00307
      15 <- 52         0.00701
      16 <- 29        -0.00164
      16 <- 33        -0.00493
      16 <- 35         0.00198
      16 <- 41        -0.00210
      17 <- 31         0.00602
      17 <- 34        -0.00463
      17 <- 37        -0.00321
      17 <- 43         0.00137
      17 <- 46         0.00107
      17 <- 49        -0.00364
      17 <- 51         0.00205
      17 <- 53        -0.00300
      18 <- 36        -0.00264
      18 <- 40        -0.00224
      18 <- 45         0.00107
      18 <- 48         0.00324
      18 <- 50         0.00274
      19 <- 31         0.00503
      19 <- 38        -0.00112
      19 <- 39         0.00183
      19 <- 42         0.00247
      19 <- 46        -0.00361
      19 <- 49        -0.00280
      19 <- 51         0.00371
      19 <- 53        -0.00588
      20 <- 38         0.00828
      21 <- 32         0.00146
      21 <- 36        -0.00126
      21 <- 40        -0.00113
      21 <- 44        -0.00182
      21 <- 45         0.00335
      21 <- 47        -0.00168
      21 <- 50        -0.00114
      21 <- 52         0.00153
      22 <- 29         0.00103
      22 <- 35        -0.00750
      22 <- 41         0.00463
      23 <- 36         0.00246
      23 <- 40        -0.00307
      23 <- 44        -0.00183
      23 <- 47        -0.00111
      23 <- 48         0.00119
      23 <- 50        -0.00218
      23 <- 52        -0.00245
      24 <- 31        -0.00740
      24 <- 34         0.00622
      24 <- 37         0.00202
      24 <- 43        -0.00104
      24 <- 49         0.00514
      24 <- 51        -0.00334
      24 <- 53         0.00365
      24 <- 54         0.00153
      25 <- 32        -0.00230
      25 <- 36        -0.00541
      25 <- 47        -0.00401
      25 <- 48         0.00264
      25 <- 50        -0.00369
      25 <- 52         0.00435
      26 <- 29        -0.00138
      26 <- 33        -0.00365
      26 <- 35        -0.00139
      26 <- 41        -0.00949
      27 <- 30        -0.04221
      27 <- 38         0.00191
      28 <- 29        -0.01175
      28 <- 31        -0.00195
      28 <- 33         0.00653
      28 <- 35        -0.00345
      28 <- 41        -0.00609

 Excited state symmetry could not be determined.
 Excited State   3:      Singlet-?Sym    3.8242 eV  324.21 nm  f=0.0029  <S**2>=0.000
       2 -> 29         0.00112
       5 -> 29         0.00270
       5 -> 33        -0.00166
       7 -> 29        -0.00174
       7 -> 33         0.00200
       7 -> 35        -0.00163
       7 -> 41        -0.00144
       9 -> 29         0.00422
       9 -> 33        -0.00212
       9 -> 35         0.00142
       9 -> 41        -0.00324
      10 -> 41        -0.00192
      11 -> 29         0.00907
      11 -> 33        -0.00679
      11 -> 35         0.00468
      11 -> 41        -0.00767
      12 -> 38        -0.00720
      13 -> 31         0.08441
      13 -> 34         0.00540
      13 -> 37        -0.00353
      13 -> 39        -0.00169
      13 -> 42        -0.01466
      13 -> 43        -0.00129
      13 -> 46         0.00541
      13 -> 49         0.00667
      13 -> 53        -0.00963
      13 -> 54        -0.00109
      14 -> 29        -0.00339
      14 -> 33         0.00196
      14 -> 41        -0.00399
      15 -> 38        -0.00998
      16 -> 31        -0.02461
      16 -> 34        -0.00265
      16 -> 35         0.00197
      16 -> 37         0.00423
      16 -> 39         0.00156
      16 -> 42         0.00184
      16 -> 43        -0.00174
      16 -> 51        -0.00390
      16 -> 53         0.00455
      17 -> 29        -0.00142
      17 -> 31        -0.00203
      17 -> 33         0.00136
      17 -> 35        -0.00120
      17 -> 41         0.00534
      18 -> 38         0.00491
      19 -> 29        -0.00868
      19 -> 33         0.00545
      19 -> 35        -0.00319
      19 -> 41        -0.00542
      19 -> 44         0.00186
      19 -> 48        -0.00132
      19 -> 52         0.00258
      20 -> 29        -0.00133
      20 -> 38        -0.00100
      20 -> 40        -0.00433
      20 -> 44        -0.01268
      20 -> 45         0.00559
      20 -> 47        -0.00613
      20 -> 48         0.00906
      20 -> 50        -0.00183
      20 -> 52        -0.01809
      21 -> 38         0.00468
      22 -> 29        -0.00126
      22 -> 31        -0.00728
      22 -> 33         0.00221
      22 -> 34        -0.00112
      22 -> 37        -0.00926
      22 -> 39        -0.00151
      22 -> 42         0.00636
      22 -> 43         0.00577
      22 -> 46        -0.00473
      22 -> 49        -0.00581
      22 -> 51         0.00711
      22 -> 53        -0.00267
      23 -> 38         0.01746
      24 -> 29         0.00395
      24 -> 31         0.00108
      24 -> 33        -0.00235
      24 -> 35         0.00155
      24 -> 41        -0.00177
      25 -> 31         0.00187
      25 -> 38        -0.00755
      26 -> 29         0.00506
      26 -> 31         0.25956
      26 -> 33         0.00476
      26 -> 34         0.01986
      26 -> 35        -0.00378
      26 -> 37         0.01625
      26 -> 39        -0.00233
      26 -> 42        -0.03295
      26 -> 43        -0.01532
      26 -> 46         0.00915
      26 -> 49         0.01602
      26 -> 53        -0.01655
      26 -> 54        -0.00133
      27 -> 29         0.00159
      27 -> 30         0.01064
      27 -> 36        -0.01684

 Alpha  occ. eigenvalues --   -1.55629  -1.42661  -1.35798  -1.20147  -1.18334
 Alpha  occ. eigenvalues --   -1.09102  -0.99308  -0.87169  -0.84047  -0.73186
 Alpha  occ. eigenvalues --   -0.68333  -0.64172  -0.61582  -0.57618  -0.55844
 Alpha  occ. eigenvalues --   -0.54309  -0.54021  -0.53523  -0.51141  -0.51027
 Alpha  occ. eigenvalues --   -0.49573  -0.49491  -0.48889  -0.47226  -0.43428
 Alpha  occ. eigenvalues --   -0.41000  -0.37601  -0.31662
 Alpha virt. eigenvalues --    0.00778   0.01526   0.07142   0.08086   0.08673
 Alpha virt. eigenvalues --    0.11590   0.11691   0.12881   0.13621   0.14302
 Alpha virt. eigenvalues --    0.14611   0.14640   0.15317   0.15679   0.16442

 Mulliken charges:
               1
     1  C   -0.048262
     2  C   -0.217603
     3  C    0.171145
     4  C   -0.217548
     5  C   -0.048218
     6  C   -0.092335
     7  H    0.138747
     8  H    0.130567
     9  H    0.130564
    10  H    0.138727
    11  N   -0.299070
    12  C   -0.055895
    13  H    0.088271
    14  H    0.070594
    15  H    0.071253
    16  C   -0.055885
    17  H    0.088329
    18  H    0.071205
    19  H    0.070551
    20  C   -0.079571
    21  N   -0.055566
 Sum of Mulliken charges =  -0.00000

 Dipole moment (field-independent basis, Debye):
    X=              5.4507    Y=             -0.0008    Z=              0.0182  Tot=              5.4508
 N-N= 3.162883839508D+02 E-N=-4.941099368926D+02  KE=-9.724117314039D+01

 Test job not archived.
 1\1\GINC-BHG0001\SP\RAM1 TD-Full\STO-5G\C9H10N2\BWEIGHT\02-Feb-2023\0\
 \# AM1/STO-5G SCF=XQC TD=(singlets,nstates=4,root=1) nosym IOp(9/40=3)
  guess=read\\MD Step 3\\0,1\C,0,-1.03748781,-1.17193354,0.00172886\C,0
 ,0.31491196,-1.13813049,0.00274636\C,0,1.00843593,0.00027577,-0.001555
 6\C,0,0.31474833,1.13843285,-0.00239973\C,0,-1.03761142,1.17190517,-0.
 00081988\C,0,-1.74508758,-0.00000902,0.00059803\H,0,-1.67319633,-2.053
 66278,0.00396793\H,0,0.77520377,-2.10609613,0.00520708\H,0,0.77491165,

 Normal termination of Gaussian 16 at Thu Feb  2 19:07:27 2023.
