 Gaussian 16, Revision C.01,
 Gaussian 16:  ES64L-G16RevC.01  3-Jul-2019

 ------------------
 #P OPT BLYP/STO-3G
 ------------------

 -------------------
 Title Card Required
 -------------------
 Symbolic Z-matrix:
 Charge =  0 Multiplicity = 1

 SCF Done:  E(RB-LYP) =  -2257.19714548     A.U. after   11 cycles
 SCF Done:  E(RB-LYP) =  -2257.26098236     A.U. after   11 cycles
 SCF Done:  E(RB-LYP) =  -2257.28111408     A.U. after   11 cycles
 SCF Done:  E(RB-LYP) =  -2257.28116854     A.U. after    8 cycles
 Optimization completed.
    -- Stationary point found.

                         Standard orientation:
 ---------------------------------------------------------------------
 Center     Atomic      Atomic             Coordinates (Angstroms)
 Number     Number       Type             X           Y           Z
 ---------------------------------------------------------------------
      1          6           0       -2.962192    2.110172   -0.064792
      2          6           0       -2.848968    1.699374   -1.492264
      3          6           0       -3.102166    0.343960   -1.867969
      4          6           0       -3.479338   -0.658133   -0.832193
      5          6           0       -3.587923   -0.264049    0.537230
      6          6           0       -3.323978    1.148837    0.928875
      7          6           0       -1.886840    3.102349    0.215364
      8          6           0       -1.109065    3.304784   -1.038969
      9          6           0       -1.703718    2.437711   -2.094354
     10          6           0       -0.858219    1.790583   -3.047670
     11          6           0       -2.220854   -0.330553   -2.861699
     12          6           0       -2.831120   -1.951990   -1.185823
     13          6           0       -2.317803   -2.799094   -0.155612
     14          6           0       -2.430956   -2.388260    1.271845
     15          6           0       -3.052828   -1.147061    1.611092
     16          6           0       -2.458191   -0.279942    2.666412
     17          6           0       -2.625761    1.138981    2.244774
     18          6           0       -1.594208    2.090852    2.513570
     19          6           0       -1.217063    3.092924    1.477790
     20          6           0        0.306838    3.489541   -0.979856
     21          6           0        1.005002    3.479687    0.336085
     22          6           0        0.258861    3.285503    1.539416
     23          6           0        0.793895    2.402426    2.613264
     24          6           0       -0.351364    1.664089    3.215336
     25          6           0       -0.190601    0.302857    3.619838
     26          6           0       -1.265895   -0.689331    3.339636
     27          6           0       -0.617700   -1.983173    2.986053
     28          6           0       -1.188152   -2.815045    1.973635
     29          6           0       -2.053285   -1.749490   -2.440084
     30          6           0        1.886842   -3.102348   -0.215365
     31          6           0        1.217065   -3.092923   -1.477791
     32          6           0        1.594208   -2.090852   -2.513569
     33          6           0        2.625762   -1.138982   -2.244773
     34          6           0        3.323980   -1.148838   -0.928876
     35          6           0        2.848968   -1.699374    1.492264
     36          6           0        1.703717   -2.437712    2.094352
     37          6           0        1.109065   -3.304784    1.038971
     38          6           0       -0.306837   -3.489540    0.979858
     39          6           0       -1.005004   -3.479686   -0.336086
     40          6           0       -0.258863   -3.285501   -1.539417
     41          6           0        0.351364   -1.664087   -3.215335
     42          6           0        0.190601   -0.302858   -3.619837
     43          6           0        1.265894    0.689332   -3.339635
     44          6           0        2.458192    0.279943   -2.666411
     45          6           0        3.052829    1.147060   -1.611093
     46          6           0        3.587924    0.264049   -0.537231
     47          6           0        3.479336    0.658132    0.832192
     48          6           0        3.102164   -0.343961    1.867968
     49          6           0        0.858217   -1.790583    3.047671
     50          6           0        1.122201   -0.377744    3.439317
     51          6           0        2.220853    0.330554    2.861699
     52          6           0        2.053283    1.749489    2.440085
     53          6           0        2.831120    1.951989    1.185821
     54          6           0        2.317805    2.799093    0.155612
     55          6           0        2.430956    2.388261   -1.271846
     56          6           0        1.188155    2.815044   -1.973634
     57          6           0        0.617701    1.983171   -2.986052
     58          6           0       -0.793895   -2.402427   -2.613263
     59          6           0       -1.122202    0.377745   -3.439316
     60          6           0        2.962192   -2.110173    0.064791
 ---------------------------------------------------------------------

 The electronic state is 1-A.
 Alpha  occ. eigenvalues --   -9.78706  -9.78706  -9.78706  -9.78703  -9.78703
 Alpha  occ. eigenvalues --   -9.78703  -9.78702  -9.78672  -9.78672  -9.78672
 Alpha  occ. eigenvalues --   -9.78672  -9.78653  -9.78653  -9.78653  -9.78653
 Alpha  occ. eigenvalues --   -9.78653  -9.78641  -9.78641  -9.78641  -9.78636
 Alpha  occ. eigenvalues --   -9.78636  -9.78636  -9.78636  -9.78636  -9.78586
 Alpha  occ. eigenvalues --   -9.78586  -9.78586  -9.78571  -9.78571  -9.78571
 Alpha  occ. eigenvalues --   -9.78543  -9.78543  -9.78543  -9.78543  -9.78543
 Alpha  occ. eigenvalues --   -9.78522  -9.78522  -9.78522  -9.78522  -9.78517
 Alpha  occ. eigenvalues --   -9.78517  -9.78517  -9.78517  -9.78517  -9.78487
 Alpha  occ. eigenvalues --   -9.78486  -9.78486  -9.78486  -9.78463  -9.78463
 Alpha  occ. eigenvalues --   -9.78463  -9.78433  -9.78433  -9.78433  -9.78433
 Alpha  occ. eigenvalues --   -9.78433  -9.78399  -9.78399  -9.78399  -9.78380
 Alpha  occ. eigenvalues --   -0.80840  -0.79066  -0.79066  -0.79066  -0.75656
 Alpha  occ. eigenvalues --   -0.75656  -0.75656  -0.75656  -0.75656  -0.71988
 Alpha  occ. eigenvalues --   -0.71988  -0.71987  -0.69333  -0.69333  -0.69333
 Alpha  occ. eigenvalues --   -0.69333  -0.64672  -0.64672  -0.64672  -0.64672
 Alpha  occ. eigenvalues --   -0.64672  -0.63335  -0.63334  -0.63334  -0.63334
 Alpha  occ. eigenvalues --   -0.58385  -0.58385  -0.58384  -0.58384  -0.58384
 Alpha  occ. eigenvalues --   -0.56599  -0.56599  -0.56599  -0.52723  -0.52723
 Alpha  occ. eigenvalues --   -0.52723  -0.49694  -0.49694  -0.49694  -0.49694
 Alpha  occ. eigenvalues --   -0.49693  -0.49450  -0.49450  -0.49449  -0.46150
 Alpha  occ. eigenvalues --   -0.42954  -0.42954  -0.42954  -0.42954  -0.41199
 Alpha  occ. eigenvalues --   -0.41199  -0.41199  -0.41198  -0.41198  -0.39075
 Alpha  occ. eigenvalues --   -0.39075  -0.39075  -0.36890  -0.36890  -0.36890
 Alpha  occ. eigenvalues --   -0.35343  -0.34732  -0.34732  -0.34732  -0.34732
 Alpha  occ. eigenvalues --   -0.33305  -0.33305  -0.33304  -0.32795  -0.32795
 Alpha  occ. eigenvalues --   -0.32795  -0.32795  -0.32794  -0.31838  -0.31838
 Alpha  occ. eigenvalues --   -0.31838  -0.31838  -0.30858  -0.30858  -0.30858
 Alpha  occ. eigenvalues --   -0.29357  -0.29357  -0.29357  -0.29357  -0.29357
 Alpha  occ. eigenvalues --   -0.28881  -0.28881  -0.28881  -0.28880  -0.25100
 Alpha  occ. eigenvalues --   -0.25100  -0.25100  -0.25100  -0.25100  -0.24604
 Alpha  occ. eigenvalues --   -0.24604  -0.24604  -0.24125  -0.24124  -0.24124
 Alpha  occ. eigenvalues --   -0.24124  -0.24124  -0.22733  -0.22733  -0.22733
 Alpha  occ. eigenvalues --   -0.22732  -0.17002  -0.17002  -0.17002  -0.17002
 Alpha  occ. eigenvalues --   -0.17002  -0.16842  -0.16842  -0.16841  -0.16841
 Alpha  occ. eigenvalues --   -0.12848  -0.12847  -0.12847  -0.12847  -0.12847
 Alpha virt. eigenvalues --   -0.05551  -0.05551  -0.05551  -0.02214  -0.02214
 Alpha virt. eigenvalues --   -0.02213   0.02391   0.02391   0.02392   0.02427
 Alpha virt. eigenvalues --    0.02427   0.02427   0.02428   0.02428   0.06922

 Mulliken charges:
               1
     1  C    0.000000
     2  C   -0.000000
     3  C    0.000001
     4  C    0.000004
     5  C   -0.000001
     6  C   -0.000000
     7  C    0.000002
     8  C    0.000001
     9  C   -0.000001
    10  C    0.000002
    11  C   -0.000002
    12  C   -0.000003
    13  C    0.000001
    14  C    0.000004
    15  C   -0.000002
    16  C   -0.000001
    17  C    0.000001
    18  C   -0.000001
    19  C   -0.000003
    20  C    0.000000
    21  C    0.000001
    22  C    0.000000
    23  C   -0.000003
    24  C    0.000004
    25  C   -0.000004
    26  C    0.000000
    27  C    0.000002
    28  C   -0.000005
    29  C    0.000005
    30  C    0.000002
    31  C   -0.000003
    32  C   -0.000001
    33  C    0.000002
    34  C   -0.000000
    35  C   -0.000000
    36  C   -0.000002
    37  C    0.000001
    38  C    0.000000
    39  C    0.000001
    40  C   -0.000000
    41  C    0.000004
    42  C   -0.000004
    43  C    0.000000
    44  C   -0.000001
    45  C   -0.000002
    46  C   -0.000001
    47  C    0.000004
    48  C    0.000001
    49  C    0.000002
    50  C   -0.000002
    51  C   -0.000002
    52  C    0.000004
    53  C   -0.000004
    54  C    0.000001
    55  C    0.000004
    56  C   -0.000005
    57  C    0.000002
    58  C   -0.000003
    59  C   -0.000002
    60  C   -0.000000
 Sum of Mulliken charges =  -0.00000

 Dipole moment (field-independent basis, Debye):
    X=             -0.0000    Y=             -0.0000    Z=             -0.0000  Tot=              0.0000
 Quadrupole moment (field-independent basis, Debye-Ang):
   XX=           -303.1389   YY=           -303.1396   ZZ=           -303.1401
   XY=              0.0002   XZ=              0.0001   YZ=              0.0000

 Normal termination of Gaussian 16 at Sun Jan 15 14:33:06 2023.
