 Gaussian 16, Revision C.01,
 Gaussian 16:  ES64L-G16RevC.01  3-Jul-2019

 ----------------------------------------------------------------------
 # AM1/STO-5G SCF=XQC TD=(singlets,nstates=4,root=1) nosym IOp(9/40=3)
 guess=read
 ----------------------------------------------------------------------

 ---------
 MD Step 4
 ---------
 Symbolic Z-matrix:
 Charge =  0 Multiplicity = 1

                          Input orientation:
 ---------------------------------------------------------------------
 Center     Atomic      Atomic             Coordinates (Angstroms)
 Number     Number       Type             X           Y           Z
 ---------------------------------------------------------------------
      1          6           0       -1.036137   -1.174108    0.001721
      2          6           0        0.314859   -1.141532    0.002769
      3          6           0        1.013182    0.000263   -0.001558
      4          6           0        0.314711    1.141829   -0.002374
      5          6           0       -1.036254    1.174096   -0.000794
      6          6           0       -1.742767   -0.000013    0.000543
      7          1           0       -1.672097   -2.062299    0.003837
      8          1           0        0.774492   -2.119452    0.005312
      9          1           0        0.774259    2.119775   -0.002802
     10          1           0       -1.672674    2.061859   -0.000088
     11          7           0        2.345293    0.000167   -0.004983
     12          6           0        3.093618   -1.231226   -0.000460
     13          1           0        4.145072   -1.024204   -0.001864
     14          1           0        2.821934   -1.830046    0.877406
     15          1           0        2.821053   -1.835644   -0.874674
     16          6           0        3.094381    1.230826    0.004699
     17          1           0        4.145645    1.023474   -0.014943
     18          1           0        2.809311    1.844220   -0.859979
     19          1           0        2.835603    1.821638    0.891652
     20          6           0       -3.205052   -0.000284    0.000002
     21          7           0       -4.320044    0.000009   -0.000635
 ---------------------------------------------------------------------

 SCF Done:  E(RAM1) =  0.149647472515     A.U. after    2 cycles

 Excitation energies and oscillator strengths:

 Excited state symmetry could not be determined.
 Excited State   1:      Singlet-?Sym    3.6427 eV  340.36 nm  f=0.0162  <S**2>=0.000
       4 -> 39        -0.00231
       4 -> 42        -0.00196
       4 -> 46        -0.00329
       5 -> 36        -0.00101
       5 -> 45         0.00114
       5 -> 48        -0.00191
       6 -> 46        -0.00101
       7 -> 48        -0.00179
       8 -> 39         0.00474
       8 -> 42         0.00187
       8 -> 46         0.00221
       8 -> 51         0.00143
       9 -> 36         0.00151
      10 -> 36        -0.00202
      10 -> 40        -0.00111
      10 -> 45        -0.00129
      10 -> 48        -0.00124
      10 -> 52        -0.00142
      11 -> 36        -0.00295
      11 -> 44        -0.00140
      11 -> 45         0.00241
      11 -> 48         0.00133
      12 -> 31        -0.00146
      12 -> 34         0.00242
      12 -> 37        -0.00235
      12 -> 39        -0.00188
      12 -> 46        -0.00254
      12 -> 49         0.00109
      13 -> 30        -0.01270
      13 -> 38        -0.00146
      14 -> 36         0.00541
      14 -> 40         0.00249
      14 -> 45        -0.00320
      14 -> 47        -0.00221
      14 -> 48         0.00138
      14 -> 50         0.00188
      14 -> 52        -0.00113
      15 -> 31        -0.00599
      15 -> 34        -0.00348
      15 -> 37        -0.00192
      15 -> 39         0.00440
      15 -> 46         0.00543
      15 -> 49        -0.00169
      15 -> 53        -0.00204
      16 -> 30         0.02068
      16 -> 38         0.00187
      17 -> 30         0.00101
      17 -> 32         0.00114
      17 -> 36         0.00364
      17 -> 44         0.00158
      17 -> 45        -0.00147
      17 -> 48        -0.00101
      17 -> 52        -0.00229
      18 -> 31         0.00207
      18 -> 39         0.00567
      18 -> 46         0.00849
      18 -> 49        -0.00183
      18 -> 53        -0.00232
      19 -> 36         0.00212
      19 -> 44        -0.00112
      19 -> 45        -0.00271
      19 -> 47         0.00410
      19 -> 48        -0.00296
      19 -> 50        -0.00106
      19 -> 52         0.00132
      20 -> 29        -0.00398
      20 -> 33        -0.00350
      20 -> 35         0.00474
      20 -> 41        -0.00308
      21 -> 31        -0.00129
      21 -> 34        -0.00147
      21 -> 37        -0.00151
      21 -> 39         0.00298
      21 -> 42         0.00201
      21 -> 46         0.00143
      21 -> 49        -0.00223
      21 -> 51         0.00185
      22 -> 30         0.05705
      22 -> 38        -0.00225
      23 -> 34         0.00104
      23 -> 37        -0.00203
      23 -> 43        -0.00220
      23 -> 46        -0.00388
      23 -> 49         0.00100
      23 -> 51         0.00182
      23 -> 53         0.00181
      24 -> 32        -0.00223
      24 -> 36        -0.00620
      24 -> 40        -0.00149
      24 -> 47        -0.00160
      24 -> 48         0.00239
      24 -> 52         0.00160
      25 -> 30        -0.00101
      25 -> 31         0.00335
      25 -> 34         0.00196
      25 -> 37        -0.00302
      25 -> 39         0.00986
      25 -> 42         0.00808
      25 -> 43         0.00259
      25 -> 46        -0.00202
      25 -> 49        -0.00567
      25 -> 51         0.00727
      25 -> 53        -0.00363
      26 -> 30        -0.13496
      26 -> 38         0.00175
      27 -> 29         0.33075
      27 -> 33        -0.04193
      27 -> 35        -0.04096
      27 -> 41         0.01022
      28 -> 30         0.60965
      28 -> 31        -0.00195
      28 -> 38         0.00582
       4 <- 39        -0.00183
       4 <- 46        -0.00221
       4 <- 49        -0.00112
       7 <- 36         0.00117
       7 <- 45        -0.00185
       8 <- 39         0.00338
       8 <- 42         0.00117
       8 <- 51         0.00158
       9 <- 50        -0.00106
      10 <- 45        -0.00181
      10 <- 52        -0.00104
      11 <- 36        -0.00192
      11 <- 45         0.00230
      12 <- 34         0.00201
      12 <- 37        -0.00104
      12 <- 46        -0.00168
      12 <- 49         0.00164
      14 <- 36         0.00250
      14 <- 40         0.00125
      14 <- 45        -0.00115
      14 <- 47        -0.00107
      15 <- 31        -0.00270
      15 <- 34        -0.00234
      15 <- 39         0.00182
      15 <- 46         0.00303
      15 <- 49        -0.00195
      16 <- 30         0.00822
      17 <- 36         0.00149
      17 <- 48        -0.00180
      17 <- 52        -0.00133
      18 <- 39         0.00259
      18 <- 46         0.00409
      18 <- 53        -0.00164
      19 <- 36         0.00131
      19 <- 45        -0.00157
      19 <- 47         0.00215
      19 <- 48        -0.00128
      20 <- 41        -0.00154
      21 <- 34        -0.00107
      21 <- 39         0.00118
      21 <- 42         0.00120
      21 <- 49        -0.00162
      22 <- 38        -0.00154
      23 <- 46        -0.00218
      24 <- 32        -0.00154
      24 <- 36        -0.00250
      24 <- 45        -0.00118
      24 <- 48         0.00310
      25 <- 31         0.00122
      25 <- 34         0.00136
      25 <- 37        -0.00131
      25 <- 39         0.00497
      25 <- 42         0.00305
      25 <- 43         0.00138
      25 <- 46        -0.00203
      25 <- 49        -0.00199
      25 <- 51         0.00382
      25 <- 53        -0.00193
      26 <- 30        -0.01841
      26 <- 38         0.00164
      27 <- 29         0.07641
      27 <- 33        -0.02344
      27 <- 35        -0.00276
      27 <- 41         0.00594
      28 <- 30         0.02414
 This state for optimization and/or second-order correction.
 Total Energy, E(TD-HF/TD-DFT) =  0.283513705799
 Copying the excited state density for this state as the 1-particle RhoCI density.

 Excited state symmetry could not be determined.
 Excited State   2:      Singlet-?Sym    3.7179 eV  333.48 nm  f=0.2235  <S**2>=0.000
       1 -> 39         0.00121
       2 -> 31         0.00159
       2 -> 34        -0.00117
       2 -> 46         0.00132
       3 -> 31         0.00122
       4 -> 36         0.00111
       4 -> 45        -0.00144
       4 -> 47        -0.00180
       4 -> 48        -0.00168
       5 -> 31         0.00236
       5 -> 34         0.00183
       5 -> 43         0.00150
       5 -> 49        -0.00134
       6 -> 44         0.00363
       6 -> 52        -0.00185
       7 -> 31         0.00508
       7 -> 34         0.00158
       7 -> 39         0.00161
       7 -> 43        -0.00235
       7 -> 49        -0.00214
       7 -> 51         0.00136
       7 -> 53        -0.00275
       8 -> 36        -0.00306
       8 -> 44        -0.00266
       8 -> 45         0.00275
       8 -> 48         0.00129
       8 -> 50        -0.00182
       9 -> 31         0.01198
       9 -> 39         0.00219
       9 -> 43        -0.00276
       9 -> 46         0.00261
       9 -> 49        -0.00116
       9 -> 51        -0.00124
       9 -> 53        -0.00108
      10 -> 34         0.00195
      10 -> 37         0.00271
      10 -> 42        -0.00172
      10 -> 49        -0.00202
      10 -> 51         0.00218
      10 -> 53         0.00169
      10 -> 54         0.00192
      11 -> 31         0.00173
      11 -> 34        -0.00195
      11 -> 37         0.00795
      11 -> 42        -0.00248
      11 -> 43        -0.00434
      11 -> 46        -0.00124
      11 -> 49         0.00377
      11 -> 51         0.00362
      11 -> 53         0.00965
      12 -> 32        -0.00149
      12 -> 36         0.00609
      12 -> 40        -0.00415
      12 -> 44         0.00399
      12 -> 45        -0.00613
      12 -> 47         0.00507
      12 -> 50         0.00137
      12 -> 52         0.00810
      13 -> 29         0.00173
      13 -> 31         0.00276
      13 -> 33         0.00206
      13 -> 35        -0.00288
      13 -> 41         0.00582
      14 -> 31        -0.00582
      14 -> 34        -0.00188
      14 -> 37         0.00657
      14 -> 39        -0.00388
      14 -> 42         0.00204
      14 -> 43        -0.00284
      14 -> 46         0.00517
      14 -> 51         0.00153
      15 -> 32         0.00192
      15 -> 36        -0.00109
      15 -> 40        -0.00230
      15 -> 45         0.00423
      15 -> 48        -0.00765
      15 -> 52         0.01177
      16 -> 29         0.01057
      16 -> 31        -0.00125
      16 -> 33         0.01606
      16 -> 35        -0.03697
      16 -> 41        -0.01141
      17 -> 31         0.01035
      17 -> 34        -0.00972
      17 -> 37        -0.00695
      17 -> 43         0.00410
      17 -> 46         0.00179
      17 -> 49        -0.00873
      17 -> 51        -0.00212
      17 -> 53        -0.00439
      18 -> 32        -0.00227
      18 -> 36        -0.00392
      18 -> 40        -0.00634
      18 -> 45        -0.00119
      18 -> 47         0.00105
      18 -> 48         0.00848
      18 -> 50         0.00591
      19 -> 31         0.00721
      19 -> 34        -0.00177
      19 -> 37         0.00457
      19 -> 38        -0.00497
      19 -> 39         0.00614
      19 -> 42         0.00600
      19 -> 43        -0.00190
      19 -> 46        -0.00494
      19 -> 49        -0.00641
      19 -> 51        -0.00628
      19 -> 53        -0.00981
      20 -> 30         0.00420
      20 -> 31         0.00114
      20 -> 37         0.00108
      20 -> 38         0.03032
      20 -> 40        -0.00144
      20 -> 49        -0.00108
      20 -> 51        -0.00111
      20 -> 53        -0.00171
      21 -> 32         0.00245
      21 -> 36        -0.00202
      21 -> 40        -0.00246
      21 -> 44        -0.00238
      21 -> 45         0.00567
      21 -> 47        -0.00338
      21 -> 48        -0.00341
      21 -> 50        -0.00249
      21 -> 52         0.00281
      22 -> 29         0.02780
      22 -> 33        -0.05079
      22 -> 35         0.01237
      22 -> 41         0.02111
      23 -> 36         0.00529
      23 -> 40        -0.00911
      23 -> 44        -0.00771
      23 -> 45         0.00582
      23 -> 47        -0.00414
      23 -> 48         0.00200
      23 -> 50        -0.00394
      23 -> 52        -0.00513
      24 -> 31        -0.01383
      24 -> 34         0.01215
      24 -> 37         0.00366
      24 -> 39        -0.00368
      24 -> 42        -0.00151
      24 -> 43        -0.00285
      24 -> 49         0.01220
      24 -> 51         0.00377
      24 -> 53         0.00551
      24 -> 54         0.00248
      25 -> 32        -0.00403
      25 -> 36        -0.01044
      25 -> 40         0.00119
      25 -> 44         0.00353
      25 -> 47        -0.00860
      25 -> 48         0.00258
      25 -> 50        -0.00429
      25 -> 52         0.00757
      26 -> 29        -0.08106
      26 -> 31         0.00898
      26 -> 33        -0.06446
      26 -> 34         0.00180
      26 -> 35         0.05677
      26 -> 41        -0.02429
      27 -> 30        -0.22617
      27 -> 38        -0.00190
      28 -> 29         0.63596
      28 -> 31         0.01930
      28 -> 33        -0.14668
      28 -> 34         0.00142
      28 -> 35         0.03510
      28 -> 41        -0.00486
      28 -> 42        -0.00104
       1 <- 39         0.00295
       1 <- 51         0.00148
       2 <- 31         0.00180
       2 <- 34        -0.00148
       2 <- 46         0.00199
       3 <- 31         0.00130
       4 <- 36         0.00174
       4 <- 45        -0.00275
       4 <- 47        -0.00110
       5 <- 31         0.00183
       5 <- 34         0.00206
       5 <- 43         0.00108
       5 <- 46        -0.00353
       6 <- 44         0.00132
       6 <- 52        -0.00122
       7 <- 31         0.00488
       7 <- 34         0.00116
       7 <- 49        -0.00161
       7 <- 53        -0.00306
       8 <- 36        -0.00334
       8 <- 44        -0.00132
       8 <- 45         0.00199
       8 <- 48         0.00191
       8 <- 50        -0.00242
       8 <- 52         0.00168
       9 <- 31         0.00780
       9 <- 51        -0.00221
       9 <- 53        -0.00123
      10 <- 34         0.00193
      10 <- 37         0.00126
      10 <- 39         0.00111
      10 <- 42        -0.00104
      10 <- 51         0.00256
      10 <- 54         0.00134
      11 <- 31        -0.00111
      11 <- 34        -0.00189
      11 <- 37         0.00432
      11 <- 42        -0.00127
      11 <- 43        -0.00166
      11 <- 46         0.00154
      11 <- 49         0.00234
      11 <- 51         0.00255
      11 <- 53         0.00626
      12 <- 32        -0.00115
      12 <- 36         0.00339
      12 <- 40        -0.00247
      12 <- 44         0.00156
      12 <- 45        -0.00437
      12 <- 47         0.00284
      12 <- 52         0.00390
      13 <- 29        -0.00354
      13 <- 33        -0.00110
      13 <- 35         0.00182
      13 <- 41         0.00108
      14 <- 31        -0.00275
      14 <- 34        -0.00128
      14 <- 37         0.00290
      14 <- 39        -0.00108
      14 <- 42         0.00160
      14 <- 43        -0.00108
      14 <- 46         0.00505
      15 <- 32         0.00128
      15 <- 36        -0.00186
      15 <- 45         0.00361
      15 <- 48        -0.00327
      15 <- 52         0.00713
      16 <- 29        -0.00160
      16 <- 33        -0.00501
      16 <- 35         0.00158
      16 <- 41        -0.00197
      17 <- 31         0.00604
      17 <- 34        -0.00485
      17 <- 37        -0.00324
      17 <- 43         0.00145
      17 <- 49        -0.00383
      17 <- 51        -0.00224
      17 <- 53        -0.00309
      18 <- 36        -0.00269
      18 <- 40        -0.00239
      18 <- 45         0.00127
      18 <- 48         0.00319
      18 <- 50         0.00286
      19 <- 31         0.00501
      19 <- 38        -0.00135
      19 <- 39         0.00183
      19 <- 42         0.00233
      19 <- 46        -0.00395
      19 <- 49        -0.00279
      19 <- 51        -0.00378
      19 <- 53        -0.00575
      20 <- 38         0.00839
      21 <- 32         0.00125
      21 <- 36        -0.00168
      21 <- 44        -0.00106
      21 <- 45         0.00342
      21 <- 47        -0.00168
      21 <- 48        -0.00114
      21 <- 52         0.00206
      22 <- 35        -0.00760
      22 <- 41         0.00466
      23 <- 36         0.00227
      23 <- 40        -0.00329
      23 <- 44        -0.00187
      23 <- 45         0.00161
      23 <- 47        -0.00152
      23 <- 48         0.00110
      23 <- 50        -0.00236
      23 <- 52        -0.00218
      24 <- 31        -0.00721
      24 <- 34         0.00609
      24 <- 37         0.00197
      24 <- 43        -0.00108
      24 <- 49         0.00530
      24 <- 51         0.00342
      24 <- 53         0.00346
      24 <- 54         0.00152
      25 <- 32        -0.00219
      25 <- 36        -0.00572
      25 <- 47        -0.00420
      25 <- 48         0.00289
      25 <- 50        -0.00371
      25 <- 52         0.00453
      26 <- 29        -0.00119
      26 <- 33        -0.00379
      26 <- 35        -0.00132
      26 <- 41        -0.00973
      27 <- 30        -0.04291
      27 <- 38         0.00194
      28 <- 29        -0.01263
      28 <- 31        -0.00143
      28 <- 33         0.00679
      28 <- 35        -0.00319
      28 <- 41        -0.00622

 Excited state symmetry could not be determined.
 Excited State   3:      Singlet-?Sym    3.8448 eV  322.47 nm  f=0.0025  <S**2>=0.000
       2 -> 29         0.00113
       5 -> 29         0.00278
       5 -> 33        -0.00168
       7 -> 29        -0.00186
       7 -> 33         0.00208
       7 -> 35        -0.00161
       7 -> 41        -0.00143
       9 -> 29         0.00420
       9 -> 33        -0.00209
       9 -> 35         0.00137
       9 -> 41        -0.00324
      10 -> 29         0.00104
      10 -> 41        -0.00199
      11 -> 29         0.00931
      11 -> 33        -0.00690
      11 -> 35         0.00459
      11 -> 41        -0.00768
      12 -> 38        -0.00725
      13 -> 31         0.08451
      13 -> 34         0.00503
      13 -> 37        -0.00377
      13 -> 39        -0.00179
      13 -> 42        -0.01442
      13 -> 46         0.00603
      13 -> 49         0.00650
      13 -> 53        -0.00982
      13 -> 54        -0.00107
      14 -> 29        -0.00346
      14 -> 33         0.00193
      14 -> 41        -0.00414
      15 -> 38        -0.01003
      16 -> 31        -0.02402
      16 -> 34        -0.00263
      16 -> 35         0.00137
      16 -> 37         0.00397
      16 -> 39         0.00158
      16 -> 42         0.00180
      16 -> 43        -0.00151
      16 -> 51         0.00381
      16 -> 53         0.00437
      17 -> 29        -0.00165
      17 -> 31        -0.00137
      17 -> 33         0.00154
      17 -> 35        -0.00129
      17 -> 41         0.00527
      18 -> 38         0.00488
      19 -> 29        -0.00879
      19 -> 33         0.00542
      19 -> 35        -0.00299
      19 -> 41        -0.00569
      19 -> 44         0.00207
      19 -> 45        -0.00126
      19 -> 47         0.00107
      19 -> 48        -0.00149
      19 -> 52         0.00308
      20 -> 29        -0.00157
      20 -> 40        -0.00485
      20 -> 44        -0.01193
      20 -> 45         0.00736
      20 -> 47        -0.00626
      20 -> 48         0.00866
      20 -> 50        -0.00131
      20 -> 52        -0.01827
      21 -> 38         0.00142
      22 -> 31        -0.00495
      22 -> 33         0.00163
      22 -> 37        -0.00915
      22 -> 39        -0.00173
      22 -> 42         0.00614
      22 -> 43         0.00515
      22 -> 46        -0.00588
      22 -> 49        -0.00560
      22 -> 51        -0.00752
      22 -> 53        -0.00279
      23 -> 38         0.01829
      24 -> 29         0.00389
      24 -> 33        -0.00226
      24 -> 35         0.00141
      24 -> 41        -0.00182
      25 -> 31         0.00202
      25 -> 38        -0.00791
      26 -> 29         0.00396
      26 -> 31         0.26037
      26 -> 33         0.00400
      26 -> 34         0.01895
      26 -> 35        -0.00253
      26 -> 37         0.01594
      26 -> 39        -0.00235
      26 -> 42        -0.03298
      26 -> 43        -0.01462
      26 -> 46         0.01212
      26 -> 49         0.01587
      26 -> 53        -0.01695
      26 -> 54        -0.00131
      27 -> 29         0.00140
      27 -> 30         0.00778
      27 -> 36        -0.01709
      27 -> 40        -0.00519
      27 -> 45         0.00620
      27 -> 47        -0.00412
      27 -> 48        -0.00844
      27 -> 50        -0.00254
      27 -> 52         0.01488
      28 -> 29        -0.01753
      28 -> 30         0.00162
      28 -> 31         0.64559
      28 -> 33         0.00912

 Alpha  occ. eigenvalues --   -1.55379  -1.42696  -1.36255  -1.19960  -1.17961
 Alpha  occ. eigenvalues --   -1.08670  -0.99073  -0.86808  -0.83772  -0.73001
 Alpha  occ. eigenvalues --   -0.68183  -0.64093  -0.61656  -0.57451  -0.55773
 Alpha  occ. eigenvalues --   -0.54336  -0.53852  -0.53444  -0.51044  -0.50945
 Alpha  occ. eigenvalues --   -0.49727  -0.49520  -0.48782  -0.47067  -0.43326
 Alpha  occ. eigenvalues --   -0.40988  -0.37570  -0.31554
 Alpha virt. eigenvalues --    0.00846   0.01622   0.07218   0.08337   0.08806
 Alpha virt. eigenvalues --    0.11612   0.11781   0.12837   0.13493   0.14154
 Alpha virt. eigenvalues --    0.14482   0.14519   0.15188   0.15590   0.16052

 Mulliken charges:
               1
     1  C   -0.048035
     2  C   -0.220370
     3  C    0.170360
     4  C   -0.220307
     5  C   -0.047997
     6  C   -0.094630
     7  H    0.139033
     8  H    0.130980
     9  H    0.130980
    10  H    0.139021
    11  N   -0.296033
    12  C   -0.059751
    13  H    0.089369
    14  H    0.072668
    15  H    0.073334
    16  C   -0.059753
    17  H    0.089429
    18  H    0.073306
    19  H    0.072602
    20  C   -0.077380
    21  N   -0.056825
 Sum of Mulliken charges =   0.00000

 Dipole moment (field-independent basis, Debye):
    X=              5.5082    Y=             -0.0007    Z=              0.0179  Tot=              5.5083
 N-N= 3.161784754995D+02 E-N=-4.939691840785D+02  KE=-9.723072923906D+01

 Test job not archived.
 1\1\GINC-BHG0001\SP\RAM1 TD-Full\STO-5G\C9H10N2\BWEIGHT\02-Feb-2023\0\
 \# AM1/STO-5G SCF=XQC TD=(singlets,nstates=4,root=1) nosym IOp(9/40=3)
  guess=read\\MD Step 4\\0,1\C,0,-1.03613662,-1.17410845,0.00172068\C,0
 ,0.31485925,-1.14153163,0.00276884\C,0,1.01318232,0.00026317,-0.001557
 54\C,0,0.31471052,1.141829,-0.00237387\C,0,-1.03625394,1.17409629,-0.0
 0079406\C,0,-1.74276737,-0.00001312,0.0005434\H,0,-1.67209739,-2.06229
 854,0.00383722\H,0,0.77449204,-2.11945213,0.00531178\H,0,0.7742591,2.1

 Normal termination of Gaussian 16 at Thu Feb  2 19:07:44 2023.
