 Gaussian 16, Revision C.01,
 Gaussian 16:  ES64L-G16RevC.01  3-Jul-2019

 ------------------
 # OPT B3LYP/6-31G*
 ------------------

 -------------------
 Title Card Required
 -------------------
 Symbolic Z-matrix:
 Charge =  0 Multiplicity = 1

 SCF Done:  E(RB3LYP) =  -4659.97610020     A.U. after   21 cycles
 SCF Done:  E(RB3LYP) =  -4660.19046346     A.U. after   16 cycles
 SCF Done:  E(RB3LYP) =  -4660.36537899     A.U. after   19 cycles
 SCF Done:  E(RB3LYP) =  -4660.38248269     A.U. after   17 cycles
 SCF Done:  E(RB3LYP) =  -4660.41073020     A.U. after   22 cycles
 SCF Done:  E(RB3LYP) =  -4660.41767200     A.U. after   19 cycles
 SCF Done:  E(RB3LYP) =  -4660.41217602     A.U. after   18 cycles
 SCF Done:  E(RB3LYP) =  -4660.42091489     A.U. after   16 cycles
 SCF Done:  E(RB3LYP) =  -4660.43050362     A.U. after   17 cycles
 SCF Done:  E(RB3LYP) =  -4660.44889655     A.U. after   18 cycles
 SCF Done:  E(RB3LYP) =  -4660.50094864     A.U. after   12 cycles
 SCF Done:  E(RB3LYP) =  -4660.50095463     A.U. after   10 cycles
 SCF Done:  E(RB3LYP) =  -4660.50095426     A.U. after   11 cycles
 SCF Done:  E(RB3LYP) =  -4660.50096163     A.U. after   11 cycles
 SCF Done:  E(RB3LYP) =  -4660.50096318     A.U. after    9 cycles
 SCF Done:  E(RB3LYP) =  -4660.50096393     A.U. after    8 cycles
 SCF Done:  E(RB3LYP) =  -4660.50096452     A.U. after    8 cycles
 SCF Done:  E(RB3LYP) =  -4660.50096454     A.U. after    8 cycles
 SCF Done:  E(RB3LYP) =  -4660.50096520     A.U. after    9 cycles
 SCF Done:  E(RB3LYP) =  -4660.50096537     A.U. after    8 cycles
 Optimization completed.
    -- Stationary point found.

                         Standard orientation:
 ---------------------------------------------------------------------
 Center     Atomic      Atomic             Coordinates (Angstroms)
 Number     Number       Type             X           Y           Z
 ---------------------------------------------------------------------
      1          6           0        4.055189   -2.125862    0.118650
      2          6           0        3.756274   -0.791113    0.140079
      3          6           0        2.416073   -0.293428    0.103586
      4          6           0        1.380789   -1.280073    0.050302
      5          6           0        1.689539   -2.639936    0.027424
      6          6           0        3.016030   -3.107701    0.056948
      7          6           0       -0.351015    0.989552    0.059367
      8          6           0        0.891323    1.716352    0.107989
      9          6           0        0.765862    3.147024    0.142429
     10          1           0        1.670374    3.740697    0.188550
     11          6           0       -0.438961    3.790017    0.128722
     12          6           0       -1.664473    3.045880    0.077121
     13          6           0       -1.572354    1.639552    0.044295
     14          1           0        5.093725   -2.430527    0.150704
     15          1           0        4.570951   -0.079682    0.194894
     16          1           0        0.869869   -3.347693   -0.013962
     17          1           0       -0.456233    4.872761    0.158530
     18          1           0       -2.466863    1.039614    0.006310
     19          7           0       -2.875602    3.656655    0.061372
     20          7           0        3.305512   -4.442305    0.030362
     21         15           0       -4.079754   -1.425638   -0.051993
     22          6           0        2.168679    1.110280    0.124029
     23          6           0        3.356813    2.010969    0.162380
     24          6           0        4.005588    2.514986    1.260557
     25         16           0        4.121935    2.568275   -1.312157
     26          6           0        5.117807    3.349614    0.930181
     27          1           0        3.693850    2.294194    2.275973
     28          6           0        5.303584    3.471587   -0.417975
     29          1           0        5.746743    3.835188    1.668297
     30          1           0        6.060611    4.038013   -0.943984
     31          6           0       -2.977386    5.110942    0.091246
     32          1           0       -4.030101    5.391574    0.066116
     33          1           0       -2.535619    5.528387    1.005140
     34          1           0       -2.482512    5.568266   -0.774964
     35          6           0       -4.100543    2.845613    0.011988
     36          1           0       -4.962488    3.512775    0.009596
     37          1           0       -4.132203    2.221796   -0.886232
     38          1           0       -4.172678    2.175724    0.873728
     39          6           0        4.688800   -4.902665    0.064339
     40          1           0        5.198350   -4.589322    0.984620
     41          1           0        4.700812   -5.992128    0.027195
     42          1           0        5.260978   -4.528384   -0.794048
     43          6           0        2.225916   -5.422999   -0.026911
     44          1           0        1.617487   -5.296485   -0.931046
     45          1           0        2.653929   -6.425460   -0.042009
     46          1           0        1.566317   -5.344822    0.846381
     47          9           0       -3.171409   -0.687424    1.131909
     48          9           0       -4.964154   -2.158024    1.084894
     49          9           0       -4.931895   -2.112149   -1.240960
     50          9           0       -3.139123   -0.641881   -1.181347
     51          9           0       -5.076446   -0.124511   -0.040530
     52          9           0       -3.002373   -2.658712   -0.061674
     53         34           0       -0.442998   -0.882941    0.008570
 ---------------------------------------------------------------------

 The electronic state is 1-A.
 Alpha  occ. eigenvalues -- -453.89327 -88.93268 -77.27119 -57.49060 -52.17329
 Alpha  occ. eigenvalues --  -52.17184 -52.16875 -24.61179 -24.61165 -24.60708
 Alpha  occ. eigenvalues --  -24.60702 -24.60458 -24.60452 -14.39846 -14.39146
 Alpha  occ. eigenvalues --  -10.26932 -10.26128 -10.26025 -10.25214 -10.25023
 Alpha  occ. eigenvalues --  -10.24932 -10.24651 -10.24444 -10.24104 -10.23781
 Alpha  occ. eigenvalues --  -10.23400 -10.23342 -10.22339 -10.22091 -10.21856
 Alpha  occ. eigenvalues --  -10.21791 -10.21683 -10.21551 -10.21522 -10.21159
 Alpha  occ. eigenvalues --  -10.19258  -7.99318  -7.74291  -6.69123  -5.95734
 Alpha  occ. eigenvalues --   -5.95354  -5.95022  -5.78726  -5.78252  -5.77711
 Alpha  occ. eigenvalues --   -4.85673  -4.85663  -4.85660  -2.14337  -2.14301
 Alpha  occ. eigenvalues --   -2.13786  -2.13407  -2.13361  -1.18007  -1.10578
 Alpha  occ. eigenvalues --   -1.10486  -1.10407  -1.07413  -1.07317  -0.98768
 Alpha  occ. eigenvalues --   -0.97816  -0.91517  -0.89279  -0.87368  -0.82773
 Alpha  occ. eigenvalues --   -0.81291  -0.78362  -0.77591  -0.76349  -0.75671
 Alpha  occ. eigenvalues --   -0.75282  -0.74062  -0.72574  -0.70183  -0.69437
 Alpha  occ. eigenvalues --   -0.65045  -0.63230  -0.62475  -0.60968  -0.58749
 Alpha  occ. eigenvalues --   -0.58335  -0.57333  -0.55924  -0.55779  -0.54048
 Alpha  occ. eigenvalues --   -0.52976  -0.52227  -0.51020  -0.50004  -0.49716
 Alpha  occ. eigenvalues --   -0.48345  -0.47161  -0.47144  -0.47110  -0.46951
 Alpha  occ. eigenvalues --   -0.46662  -0.45624  -0.45386  -0.44536  -0.44043
 Alpha  occ. eigenvalues --   -0.43943  -0.43556  -0.42951  -0.42517  -0.42186
 Alpha  occ. eigenvalues --   -0.41909  -0.41411  -0.40862  -0.40718  -0.40603
 Alpha  occ. eigenvalues --   -0.39976  -0.39474  -0.39295  -0.39178  -0.39006
 Alpha  occ. eigenvalues --   -0.38683  -0.37840  -0.36917  -0.36711  -0.36619
 Alpha  occ. eigenvalues --   -0.35110  -0.34830  -0.33944  -0.32533  -0.32346
 Alpha  occ. eigenvalues --   -0.32233  -0.32075  -0.31923  -0.31690  -0.31540
 Alpha  occ. eigenvalues --   -0.30524  -0.28924  -0.28559  -0.28506  -0.28437
 Alpha  occ. eigenvalues --   -0.27442  -0.26302  -0.25662  -0.22068  -0.21249
 Alpha virt. eigenvalues --   -0.11517  -0.03818  -0.03602  -0.02189  -0.01392
 Alpha virt. eigenvalues --    0.00677   0.01856   0.03457   0.04342   0.06067
 Alpha virt. eigenvalues --    0.07229   0.08013   0.08149   0.08476   0.09360

 Mulliken charges:
               1
     1  C   -0.189623
     2  C   -0.171215
     3  C    0.112500
     4  C   -0.009123
     5  C   -0.277671
     6  C    0.411171
     7  C   -0.057246
     8  C    0.120731
     9  C   -0.173241
    10  H    0.166417
    11  C   -0.178567
    12  C    0.401902
    13  C   -0.256740
    14  H    0.143185
    15  H    0.167511
    16  H    0.168170
    17  H    0.143715
    18  H    0.230446
    19  N   -0.476260
    20  N   -0.476530
    21  P    1.477135
    22  C    0.000606
    23  C   -0.302804
    24  C   -0.085351
    25  S    0.279401
    26  C   -0.101195
    27  H    0.155138
    28  C   -0.338119
    29  H    0.152135
    30  H    0.182266
    31  C   -0.321849
    32  H    0.177065
    33  H    0.172210
    34  H    0.172854
    35  C   -0.346598
    36  H    0.160064
    37  H    0.213722
    38  H    0.214941
    39  C   -0.321221
    40  H    0.173432
    41  H    0.172329
    42  H    0.174289
    43  C   -0.327549
    44  H    0.185104
    45  H    0.169427
    46  H    0.184880
    47  F   -0.414365
    48  F   -0.350031
    49  F   -0.349964
    50  F   -0.413916
    51  F   -0.388791
    52  F   -0.386790
    53  Se   0.232010
 Sum of Mulliken charges =  -0.00000

 Dipole moment (field-independent basis, Debye):
    X=             16.3534    Y=              5.5321    Z=              0.9638  Tot=             17.2907
 Quadrupole moment (field-independent basis, Debye-Ang):
   XX=           -217.1561   YY=           -147.4083   ZZ=           -212.1388
   XY=            -50.4644   XZ=              1.7084   YZ=              1.6644

 Normal termination of Gaussian 16 at Thu Jan  5 06:24:43 2023.
